<?xml version="1.0"?>
<VTKFile type="PolyData" version="0.1" byte_order="LittleEndian">
  <PolyData>
    <Piece NumberOfPoints="     22" NumberOfVerts="  0" NumberOfLines="     21"
           NumberOfStrips="  0" NumberOfPolys="      0">
      <Points>
        <DataArray type="Float32" NumberOfComponents="3" format="ascii">
                       0.00000                      -0.00026                       2.19000
                       0.00003                      -0.00224                       6.57000
                       0.00010                      -0.00591                      10.95000
                       0.00020                      -0.01111                      15.32999
                       0.00034                      -0.01774                      19.70999
                       0.00052                      -0.02576                      24.08998
                       0.00073                      -0.03520                      28.46997
                       0.00098                      -0.04611                      32.84996
                       0.00126                      -0.05852                      37.22994
                       0.00157                      -0.07252                      41.60992
                       0.00192                      -0.08814                      45.98989
                       0.00230                      -0.10543                      50.36986
                       0.00273                      -0.12437                      54.74981
                       0.00319                      -0.14494                      59.12977
                       0.00369                      -0.16709                      63.50971
                       0.00422                      -0.19070                      67.88965
                       0.00480                      -0.21564                      72.26958
                       0.00539                      -0.24175                      76.64950
                       0.00600                      -0.26881                      81.02941
                       0.00660                      -0.29661                      85.40933
                       0.00689                      -0.31075                      87.59928
                       0.00000                       0.00000                       0.00000
        </DataArray>
      </Points>
      <PointData>
        <DataArray type="Float32" Name="TranslationalVelocity" NumberOfComponents="3" format="ascii">
                       0.00001                      -0.00048                      -0.00000
                       0.00005                      -0.00406                      -0.00000
                       0.00016                      -0.01074                      -0.00001
                       0.00034                      -0.02019                      -0.00002
                       0.00057                      -0.03223                      -0.00004
                       0.00087                      -0.04681                      -0.00006
                       0.00124                      -0.06397                      -0.00010
                       0.00166                      -0.08378                      -0.00015
                       0.00213                      -0.10635                      -0.00022
                       0.00267                      -0.13178                      -0.00030
                       0.00326                      -0.16017                      -0.00040
                       0.00391                      -0.19158                      -0.00052
                       0.00463                      -0.22600                      -0.00067
                       0.00541                      -0.26339                      -0.00085
                       0.00626                      -0.30364                      -0.00105
                       0.00717                      -0.34655                      -0.00128
                       0.00815                      -0.39188                      -0.00154
                       0.00916                      -0.43933                      -0.00182
                       0.01020                      -0.48852                      -0.00213
                       0.01122                      -0.53905                      -0.00245
                       0.01171                      -0.56473                      -0.00261
                       0.00000                      -0.00000                       0.00000
        </DataArray>
        <DataArray type="Float32" Name="RotationalVelocity" NumberOfComponents="3" format="ascii">
                       0.00043                       0.00001                       0.00000
                       0.00119                       0.00002                       0.00000
                       0.00185                       0.00003                       0.00000
                       0.00246                       0.00005                       0.00000
                       0.00304                       0.00006                       0.00000
                       0.00362                       0.00008                       0.00000
                       0.00422                       0.00009                       0.00000
                       0.00483                       0.00010                       0.00000
                       0.00548                       0.00012                       0.00000
                       0.00614                       0.00013                       0.00000
                       0.00682                       0.00014                       0.00000
                       0.00752                       0.00016                       0.00000
                       0.00820                       0.00017                       0.00000
                       0.00887                       0.00019                       0.00000
                       0.00950                       0.00020                       0.00000
                       0.01008                       0.00022                       0.00000
                       0.01060                       0.00023                       0.00000
                       0.01105                       0.00024                       0.00000
                       0.01140                       0.00024                       0.00000
                       0.01166                       0.00023                       0.00000
                       0.01175                       0.00022                       0.00000
                       0.00000                      -0.00000                       0.00000
        </DataArray>
        <DataArray type="Float32" Name="TranslationalAcceleration" NumberOfComponents="3" format="ascii">
                      -0.00001                       0.00107                       0.00000
                      -0.00012                       0.00911                       0.00000
                      -0.00036                       0.02408                       0.00000
                      -0.00074                       0.04526                       0.00001
                      -0.00126                       0.07226                       0.00002
                      -0.00194                       0.10497                       0.00003
                      -0.00275                       0.14343                       0.00004
                      -0.00371                       0.18784                       0.00006
                      -0.00480                       0.23843                       0.00009
                      -0.00604                       0.29545                       0.00013
                      -0.00742                       0.35910                       0.00017
                      -0.00897                       0.42950                       0.00022
                      -0.01067                       0.50666                       0.00029
                      -0.01256                       0.59048                       0.00036
                      -0.01462                       0.68068                       0.00045
                      -0.01686                       0.77686                       0.00054
                      -0.01926                       0.87847                       0.00065
                      -0.02178                       0.98480                       0.00077
                      -0.02436                       1.09504                       0.00090
                      -0.02692                       1.20828                       0.00104
                      -0.02815                       1.26585                       0.00111
                       0.00000                      -0.00000                       0.00000
        </DataArray>
        <DataArray type="Float32" Name="RotationalAcceleration" NumberOfComponents="3" format="ascii">
                      -0.00096                      -0.00001                       0.00000
                      -0.00266                      -0.00004                       0.00000
                      -0.00415                      -0.00007                       0.00000
                      -0.00551                      -0.00010                       0.00000
                      -0.00682                      -0.00014                       0.00000
                      -0.00812                      -0.00017                       0.00000
                      -0.00945                      -0.00020                       0.00000
                      -0.01084                      -0.00023                       0.00000
                      -0.01228                      -0.00027                       0.00000
                      -0.01377                      -0.00030                       0.00000
                      -0.01530                      -0.00033                       0.00000
                      -0.01685                      -0.00037                       0.00000
                      -0.01838                      -0.00041                       0.00000
                      -0.01988                      -0.00045                       0.00000
                      -0.02130                      -0.00049                       0.00000
                      -0.02260                      -0.00053                       0.00000
                      -0.02377                      -0.00056                       0.00000
                      -0.02476                      -0.00059                       0.00000
                      -0.02555                      -0.00059                       0.00000
                      -0.02612                      -0.00057                       0.00000
                      -0.02632                      -0.00055                       0.00000
                       0.00000                      -0.00000                       0.00000
        </DataArray>
        <DataArray type="Float32" Name="OrientationX" NumberOfComponents="3" format="ascii">
                       1.00000                       0.00000                      -0.00000
                       1.00000                       0.00000                      -0.00001
                       1.00000                       0.00000                      -0.00002
                       1.00000                       0.00000                      -0.00003
                       1.00000                       0.00000                      -0.00004
                       1.00000                       0.00000                      -0.00004
                       1.00000                       0.00000                      -0.00005
                       1.00000                       0.00000                      -0.00006
                       1.00000                       0.00000                      -0.00007
                       1.00000                       0.00000                      -0.00008
                       1.00000                       0.00000                      -0.00008
                       1.00000                       0.00000                      -0.00009
                       1.00000                       0.00000                      -0.00010
                       1.00000                       0.00000                      -0.00011
                       1.00000                       0.00000                      -0.00012
                       1.00000                       0.00000                      -0.00013
                       1.00000                       0.00000                      -0.00013
                       1.00000                       0.00000                      -0.00014
                       1.00000                       0.00000                      -0.00014
                       1.00000                       0.00000                      -0.00013
                       1.00000                       0.00000                      -0.00013
                       1.00000                      -0.00000                       0.00000
        </DataArray>
        <DataArray type="Float32" Name="OrientationY" NumberOfComponents="3" format="ascii">
                       0.00000                       1.00000                       0.00024
                       0.00000                       1.00000                       0.00065
                       0.00000                       1.00000                       0.00102
                       0.00000                       1.00000                       0.00135
                       0.00000                       1.00000                       0.00167
                       0.00000                       1.00000                       0.00199
                       0.00000                       1.00000                       0.00232
                       0.00000                       1.00000                       0.00266
                       0.00000                       1.00000                       0.00301
                       0.00000                       0.99999                       0.00338
                       0.00000                       0.99999                       0.00376
                       0.00000                       0.99999                       0.00414
                       0.00000                       0.99999                       0.00451
                       0.00000                       0.99999                       0.00488
                       0.00000                       0.99999                       0.00523
                       0.00000                       0.99998                       0.00555
                       0.00000                       0.99998                       0.00583
                       0.00000                       0.99998                       0.00608
                       0.00000                       0.99998                       0.00627
                       0.00000                       0.99998                       0.00641
                       0.00000                       0.99998                       0.00646
                      -0.00000                       1.00000                      -0.00000
        </DataArray>
        <DataArray type="Float32" Name="OrientationZ" NumberOfComponents="3" format="ascii">
                       0.00000                      -0.00024                       1.00000
                       0.00001                      -0.00065                       1.00000
                       0.00002                      -0.00102                       1.00000
                       0.00003                      -0.00135                       1.00000
                       0.00004                      -0.00167                       1.00000
                       0.00004                      -0.00199                       1.00000
                       0.00005                      -0.00232                       1.00000
                       0.00006                      -0.00266                       1.00000
                       0.00007                      -0.00301                       1.00000
                       0.00008                      -0.00338                       0.99999
                       0.00008                      -0.00376                       0.99999
                       0.00009                      -0.00414                       0.99999
                       0.00010                      -0.00451                       0.99999
                       0.00011                      -0.00488                       0.99999
                       0.00012                      -0.00523                       0.99999
                       0.00013                      -0.00555                       0.99998
                       0.00013                      -0.00583                       0.99998
                       0.00014                      -0.00608                       0.99998
                       0.00014                      -0.00627                       0.99998
                       0.00013                      -0.00641                       0.99998
                       0.00013                      -0.00646                       0.99998
                       0.00000                      -0.00000                       1.00000
        </DataArray>
      </PointData>
      <Lines>
        <DataArray type="Int32" Name="connectivity" format="ascii">
      0      1
      1      2
      2      3
      3      4
      4      5
      5      6
      6      7
      7      8
      8      9
      9     10
     10     11
     11     12
     12     13
     13     14
     14     15
     15     16
     16     17
     17     18
     18     19
     19     20
     21      0
        </DataArray>
        <DataArray type="Int32" Name="offsets" format="ascii">
      2
      4
      6
      8
     10
     12
     14
     16
     18
     20
     22
     24
     26
     28
     30
     32
     34
     36
     38
     40
     42
        </DataArray>
      </Lines>
    </Piece>
  </PolyData>
</VTKFile>
