<?xml version="1.0"?>
<VTKFile type="PolyData" version="0.1" byte_order="LittleEndian">
  <PolyData>
    <Piece NumberOfPoints="     22" NumberOfVerts="  0" NumberOfLines="     21"
           NumberOfStrips="  0" NumberOfPolys="      0">
      <Points>
        <DataArray type="Float32" NumberOfComponents="3" format="ascii">
                       0.00000                      -0.00035                       2.19000
                       0.00004                      -0.00300                       6.57000
                       0.00012                      -0.00794                      10.95000
                       0.00026                      -0.01492                      15.32999
                       0.00044                      -0.02382                      19.70998
                       0.00067                      -0.03460                      24.08997
                       0.00095                      -0.04727                      28.46995
                       0.00127                      -0.06191                      32.84992
                       0.00163                      -0.07859                      37.22989
                       0.00204                      -0.09739                      41.60985
                       0.00249                      -0.11837                      45.98980
                       0.00299                      -0.14157                      50.36974
                       0.00354                      -0.16701                      54.74967
                       0.00414                      -0.19464                      59.12958
                       0.00479                      -0.22438                      63.50948
                       0.00549                      -0.25609                      67.88936
                       0.00623                      -0.28959                      72.26923
                       0.00701                      -0.32465                      76.64909
                       0.00780                      -0.36100                      81.02894
                       0.00858                      -0.39833                      85.40879
                       0.00895                      -0.41731                      87.59870
                       0.00000                       0.00000                       0.00000
        </DataArray>
      </Points>
      <PointData>
        <DataArray type="Float32" Name="TranslationalVelocity" NumberOfComponents="3" format="ascii">
                      -0.00000                       0.00007                       0.00000
                      -0.00001                       0.00064                       0.00000
                      -0.00004                       0.00168                       0.00000
                      -0.00007                       0.00316                       0.00000
                      -0.00012                       0.00504                       0.00001
                      -0.00019                       0.00732                       0.00001
                      -0.00027                       0.01000                       0.00002
                      -0.00036                       0.01310                       0.00003
                      -0.00046                       0.01662                       0.00005
                      -0.00057                       0.02060                       0.00006
                      -0.00070                       0.02503                       0.00008
                      -0.00084                       0.02994                       0.00011
                      -0.00099                       0.03532                       0.00014
                      -0.00116                       0.04116                       0.00018
                      -0.00134                       0.04745                       0.00022
                      -0.00153                       0.05415                       0.00027
                      -0.00174                       0.06123                       0.00032
                      -0.00195                       0.06864                       0.00038
                      -0.00217                       0.07632                       0.00045
                      -0.00239                       0.08421                       0.00051
                      -0.00249                       0.08822                       0.00055
                       0.00000                      -0.00000                       0.00000
        </DataArray>
        <DataArray type="Float32" Name="RotationalVelocity" NumberOfComponents="3" format="ascii">
                      -0.00007                      -0.00000                       0.00000
                      -0.00019                      -0.00000                       0.00000
                      -0.00029                      -0.00001                       0.00000
                      -0.00038                      -0.00001                       0.00000
                      -0.00048                      -0.00001                       0.00000
                      -0.00057                      -0.00002                       0.00000
                      -0.00066                      -0.00002                       0.00000
                      -0.00076                      -0.00002                       0.00000
                      -0.00086                      -0.00002                       0.00000
                      -0.00096                      -0.00003                       0.00000
                      -0.00107                      -0.00003                       0.00000
                      -0.00117                      -0.00003                       0.00000
                      -0.00128                      -0.00004                       0.00000
                      -0.00139                      -0.00004                       0.00000
                      -0.00148                      -0.00004                       0.00000
                      -0.00158                      -0.00005                       0.00000
                      -0.00166                      -0.00005                       0.00000
                      -0.00172                      -0.00005                       0.00000
                      -0.00178                      -0.00005                       0.00000
                      -0.00182                      -0.00005                       0.00000
                      -0.00183                      -0.00005                       0.00000
                       0.00000                      -0.00000                       0.00000
        </DataArray>
        <DataArray type="Float32" Name="TranslationalAcceleration" NumberOfComponents="3" format="ascii">
                      -0.00001                       0.00143                       0.00000
                      -0.00014                       0.01215                       0.00001
                      -0.00042                       0.03213                       0.00003
                      -0.00088                       0.06038                       0.00008
                      -0.00152                       0.09640                       0.00015
                      -0.00234                       0.14002                       0.00026
                      -0.00333                       0.19133                       0.00041
                      -0.00451                       0.25057                       0.00060
                      -0.00587                       0.31805                       0.00086
                      -0.00742                       0.39411                       0.00118
                      -0.00917                       0.47899                       0.00159
                      -0.01113                       0.57288                       0.00208
                      -0.01333                       0.67579                       0.00267
                      -0.01577                       0.78756                       0.00337
                      -0.01846                       0.90784                       0.00418
                      -0.02139                       1.03610                       0.00510
                      -0.02455                       1.17158                       0.00612
                      -0.02788                       1.31336                       0.00724
                      -0.03132                       1.46035                       0.00845
                      -0.03473                       1.61134                       0.00972
                      -0.03638                       1.68809                       0.01037
                       0.00000                      -0.00000                       0.00000
        </DataArray>
        <DataArray type="Float32" Name="RotationalAcceleration" NumberOfComponents="3" format="ascii">
                      -0.00129                      -0.00001                       0.00000
                      -0.00355                      -0.00005                       0.00000
                      -0.00553                      -0.00008                       0.00000
                      -0.00735                      -0.00012                       0.00000
                      -0.00909                      -0.00017                       0.00000
                      -0.01083                      -0.00021                       0.00000
                      -0.01261                      -0.00025                       0.00000
                      -0.01445                      -0.00029                       0.00000
                      -0.01637                      -0.00033                       0.00000
                      -0.01836                      -0.00038                       0.00000
                      -0.02040                      -0.00042                       0.00000
                      -0.02247                      -0.00047                       0.00000
                      -0.02452                      -0.00053                       0.00000
                      -0.02651                      -0.00059                       0.00000
                      -0.02840                      -0.00064                       0.00000
                      -0.03014                      -0.00070                       0.00000
                      -0.03169                      -0.00074                       0.00000
                      -0.03301                      -0.00078                       0.00000
                      -0.03406                      -0.00079                       0.00000
                      -0.03483                      -0.00077                       0.00000
                      -0.03510                      -0.00074                       0.00000
                       0.00000                      -0.00000                       0.00000
        </DataArray>
        <DataArray type="Float32" Name="OrientationX" NumberOfComponents="3" format="ascii">
                       1.00000                       0.00000                      -0.00000
                       1.00000                       0.00000                      -0.00001
                       1.00000                       0.00000                      -0.00002
                       1.00000                       0.00000                      -0.00004
                       1.00000                       0.00000                      -0.00005
                       1.00000                       0.00000                      -0.00006
                       1.00000                       0.00000                      -0.00007
                       1.00000                       0.00000                      -0.00008
                       1.00000                       0.00000                      -0.00009
                       1.00000                       0.00000                      -0.00010
                       1.00000                       0.00000                      -0.00011
                       1.00000                       0.00000                      -0.00012
                       1.00000                       0.00000                      -0.00013
                       1.00000                       0.00000                      -0.00014
                       1.00000                       0.00000                      -0.00015
                       1.00000                       0.00000                      -0.00016
                       1.00000                       0.00000                      -0.00017
                       1.00000                       0.00000                      -0.00018
                       1.00000                       0.00000                      -0.00018
                       1.00000                       0.00000                      -0.00017
                       1.00000                       0.00000                      -0.00017
                       1.00000                      -0.00000                       0.00000
        </DataArray>
        <DataArray type="Float32" Name="OrientationY" NumberOfComponents="3" format="ascii">
                       0.00000                       1.00000                       0.00032
                       0.00000                       1.00000                       0.00088
                       0.00000                       1.00000                       0.00137
                       0.00000                       1.00000                       0.00182
                       0.00000                       1.00000                       0.00225
                       0.00000                       1.00000                       0.00268
                       0.00000                       1.00000                       0.00312
                       0.00000                       0.99999                       0.00357
                       0.00000                       0.99999                       0.00405
                       0.00000                       0.99999                       0.00454
                       0.00000                       0.99999                       0.00504
                       0.00000                       0.99998                       0.00555
                       0.00000                       0.99998                       0.00606
                       0.00000                       0.99998                       0.00655
                       0.00000                       0.99998                       0.00702
                       0.00000                       0.99997                       0.00745
                       0.00000                       0.99997                       0.00784
                       0.00000                       0.99997                       0.00816
                       0.00000                       0.99996                       0.00842
                       0.00000                       0.99996                       0.00861
                       0.00000                       0.99996                       0.00868
                      -0.00000                       1.00000                      -0.00000
        </DataArray>
        <DataArray type="Float32" Name="OrientationZ" NumberOfComponents="3" format="ascii">
                       0.00000                      -0.00032                       1.00000
                       0.00001                      -0.00088                       1.00000
                       0.00002                      -0.00137                       1.00000
                       0.00004                      -0.00182                       1.00000
                       0.00005                      -0.00225                       1.00000
                       0.00006                      -0.00268                       1.00000
                       0.00007                      -0.00312                       1.00000
                       0.00008                      -0.00357                       0.99999
                       0.00009                      -0.00405                       0.99999
                       0.00010                      -0.00454                       0.99999
                       0.00011                      -0.00504                       0.99999
                       0.00012                      -0.00555                       0.99998
                       0.00013                      -0.00606                       0.99998
                       0.00014                      -0.00655                       0.99998
                       0.00015                      -0.00702                       0.99998
                       0.00016                      -0.00745                       0.99997
                       0.00017                      -0.00784                       0.99997
                       0.00018                      -0.00816                       0.99997
                       0.00018                      -0.00842                       0.99996
                       0.00017                      -0.00861                       0.99996
                       0.00017                      -0.00868                       0.99996
                       0.00000                      -0.00000                       1.00000
        </DataArray>
      </PointData>
      <Lines>
        <DataArray type="Int32" Name="connectivity" format="ascii">
      0      1
      1      2
      2      3
      3      4
      4      5
      5      6
      6      7
      7      8
      8      9
      9     10
     10     11
     11     12
     12     13
     13     14
     14     15
     15     16
     16     17
     17     18
     18     19
     19     20
     21      0
        </DataArray>
        <DataArray type="Int32" Name="offsets" format="ascii">
      2
      4
      6
      8
     10
     12
     14
     16
     18
     20
     22
     24
     26
     28
     30
     32
     34
     36
     38
     40
     42
        </DataArray>
      </Lines>
    </Piece>
  </PolyData>
</VTKFile>
