<?xml version="1.0"?>
<VTKFile type="PolyData" version="0.1" byte_order="LittleEndian">
  <PolyData>
    <Piece NumberOfPoints="     22" NumberOfVerts="  0" NumberOfLines="     21"
           NumberOfStrips="  0" NumberOfPolys="      0">
      <Points>
        <DataArray type="Float32" NumberOfComponents="3" format="ascii">
                       0.00000                      -0.00034                       2.19000
                       0.00004                      -0.00287                       6.57000
                       0.00012                      -0.00758                      10.95000
                       0.00025                      -0.01425                      15.32999
                       0.00042                      -0.02274                      19.70998
                       0.00065                      -0.03304                      24.08997
                       0.00092                      -0.04514                      28.46995
                       0.00123                      -0.05912                      32.84993
                       0.00158                      -0.07505                      37.22990
                       0.00198                      -0.09299                      41.60987
                       0.00242                      -0.11303                      45.98982
                       0.00290                      -0.13519                      50.36976
                       0.00343                      -0.15948                      54.74970
                       0.00401                      -0.18586                      59.12962
                       0.00464                      -0.21426                      63.50952
                       0.00531                      -0.24454                      67.88942
                       0.00603                      -0.27652                      72.26930
                       0.00679                      -0.31000                      76.64917
                       0.00755                      -0.34471                      81.02904
                       0.00831                      -0.38036                      85.40889
                       0.00867                      -0.39848                      87.59882
                       0.00000                       0.00000                       0.00000
        </DataArray>
      </Points>
      <PointData>
        <DataArray type="Float32" Name="TranslationalVelocity" NumberOfComponents="3" format="ascii">
                       0.00000                      -0.00022                      -0.00000
                       0.00002                      -0.00188                      -0.00000
                       0.00007                      -0.00496                      -0.00000
                       0.00014                      -0.00932                      -0.00001
                       0.00025                      -0.01488                      -0.00002
                       0.00038                      -0.02162                      -0.00004
                       0.00053                      -0.02954                      -0.00006
                       0.00071                      -0.03869                      -0.00009
                       0.00092                      -0.04911                      -0.00013
                       0.00115                      -0.06085                      -0.00018
                       0.00140                      -0.07396                      -0.00024
                       0.00168                      -0.08847                      -0.00031
                       0.00199                      -0.10436                      -0.00040
                       0.00233                      -0.12163                      -0.00050
                       0.00269                      -0.14022                      -0.00062
                       0.00309                      -0.16004                      -0.00076
                       0.00351                      -0.18097                      -0.00091
                       0.00395                      -0.20289                      -0.00108
                       0.00439                      -0.22561                      -0.00126
                       0.00483                      -0.24894                      -0.00145
                       0.00505                      -0.26081                      -0.00155
                       0.00000                      -0.00000                       0.00000
        </DataArray>
        <DataArray type="Float32" Name="RotationalVelocity" NumberOfComponents="3" format="ascii">
                       0.00020                       0.00000                       0.00000
                       0.00055                       0.00001                       0.00000
                       0.00085                       0.00001                       0.00000
                       0.00113                       0.00002                       0.00000
                       0.00140                       0.00003                       0.00000
                       0.00167                       0.00003                       0.00000
                       0.00195                       0.00004                       0.00000
                       0.00223                       0.00004                       0.00000
                       0.00253                       0.00005                       0.00000
                       0.00284                       0.00006                       0.00000
                       0.00315                       0.00006                       0.00000
                       0.00347                       0.00007                       0.00000
                       0.00379                       0.00007                       0.00000
                       0.00410                       0.00008                       0.00000
                       0.00439                       0.00009                       0.00000
                       0.00466                       0.00009                       0.00000
                       0.00490                       0.00010                       0.00000
                       0.00510                       0.00010                       0.00000
                       0.00526                       0.00010                       0.00000
                       0.00538                       0.00010                       0.00000
                       0.00543                       0.00009                       0.00000
                       0.00000                      -0.00000                       0.00000
        </DataArray>
        <DataArray type="Float32" Name="TranslationalAcceleration" NumberOfComponents="3" format="ascii">
                      -0.00001                       0.00137                       0.00000
                      -0.00014                       0.01164                       0.00001
                      -0.00042                       0.03077                       0.00003
                      -0.00087                       0.05783                       0.00006
                      -0.00149                       0.09232                       0.00012
                      -0.00230                       0.13410                       0.00021
                      -0.00328                       0.18324                       0.00034
                      -0.00443                       0.23997                       0.00050
                      -0.00576                       0.30460                       0.00071
                      -0.00727                       0.37743                       0.00098
                      -0.00898                       0.45873                       0.00131
                      -0.01089                       0.54865                       0.00172
                      -0.01303                       0.64721                       0.00221
                      -0.01539                       0.75425                       0.00279
                      -0.01800                       0.86945                       0.00346
                      -0.02084                       0.99229                       0.00422
                      -0.02390                       1.12204                       0.00506
                      -0.02713                       1.25784                       0.00599
                      -0.03044                       1.39862                       0.00699
                      -0.03374                       1.54322                       0.00804
                      -0.03533                       1.61673                       0.00858
                       0.00000                      -0.00000                       0.00000
        </DataArray>
        <DataArray type="Float32" Name="RotationalAcceleration" NumberOfComponents="3" format="ascii">
                      -0.00123                      -0.00001                       0.00000
                      -0.00340                      -0.00005                       0.00000
                      -0.00530                      -0.00008                       0.00000
                      -0.00704                      -0.00012                       0.00000
                      -0.00871                      -0.00016                       0.00000
                      -0.01037                      -0.00020                       0.00000
                      -0.01207                      -0.00024                       0.00000
                      -0.01384                      -0.00028                       0.00000
                      -0.01568                      -0.00032                       0.00000
                      -0.01759                      -0.00037                       0.00000
                      -0.01954                      -0.00041                       0.00000
                      -0.02152                      -0.00046                       0.00000
                      -0.02348                      -0.00051                       0.00000
                      -0.02539                      -0.00057                       0.00000
                      -0.02720                      -0.00062                       0.00000
                      -0.02887                      -0.00067                       0.00000
                      -0.03035                      -0.00072                       0.00000
                      -0.03161                      -0.00075                       0.00000
                      -0.03262                      -0.00076                       0.00000
                      -0.03336                      -0.00074                       0.00000
                      -0.03361                      -0.00071                       0.00000
                       0.00000                      -0.00000                       0.00000
        </DataArray>
        <DataArray type="Float32" Name="OrientationX" NumberOfComponents="3" format="ascii">
                       1.00000                       0.00000                      -0.00000
                       1.00000                       0.00000                      -0.00001
                       1.00000                       0.00000                      -0.00002
                       1.00000                       0.00000                      -0.00003
                       1.00000                       0.00000                      -0.00005
                       1.00000                       0.00000                      -0.00006
                       1.00000                       0.00000                      -0.00007
                       1.00000                       0.00000                      -0.00008
                       1.00000                       0.00000                      -0.00009
                       1.00000                       0.00000                      -0.00010
                       1.00000                       0.00000                      -0.00011
                       1.00000                       0.00000                      -0.00012
                       1.00000                       0.00000                      -0.00013
                       1.00000                       0.00000                      -0.00014
                       1.00000                       0.00000                      -0.00015
                       1.00000                       0.00000                      -0.00016
                       1.00000                       0.00000                      -0.00017
                       1.00000                       0.00000                      -0.00017
                       1.00000                       0.00000                      -0.00018
                       1.00000                       0.00000                      -0.00017
                       1.00000                       0.00000                      -0.00016
                       1.00000                      -0.00000                       0.00000
        </DataArray>
        <DataArray type="Float32" Name="OrientationY" NumberOfComponents="3" format="ascii">
                       0.00000                       1.00000                       0.00030
                       0.00000                       1.00000                       0.00084
                       0.00000                       1.00000                       0.00131
                       0.00000                       1.00000                       0.00173
                       0.00000                       1.00000                       0.00215
                       0.00000                       1.00000                       0.00256
                       0.00000                       1.00000                       0.00298
                       0.00000                       0.99999                       0.00341
                       0.00000                       0.99999                       0.00386
                       0.00000                       0.99999                       0.00433
                       0.00000                       0.99999                       0.00482
                       0.00000                       0.99999                       0.00530
                       0.00000                       0.99998                       0.00579
                       0.00000                       0.99998                       0.00626
                       0.00000                       0.99998                       0.00670
                       0.00000                       0.99997                       0.00712
                       0.00000                       0.99997                       0.00748
                       0.00000                       0.99997                       0.00779
                       0.00000                       0.99997                       0.00804
                       0.00000                       0.99997                       0.00822
                       0.00000                       0.99997                       0.00829
                      -0.00000                       1.00000                      -0.00000
        </DataArray>
        <DataArray type="Float32" Name="OrientationZ" NumberOfComponents="3" format="ascii">
                       0.00000                      -0.00030                       1.00000
                       0.00001                      -0.00084                       1.00000
                       0.00002                      -0.00131                       1.00000
                       0.00003                      -0.00173                       1.00000
                       0.00005                      -0.00215                       1.00000
                       0.00006                      -0.00256                       1.00000
                       0.00007                      -0.00298                       1.00000
                       0.00008                      -0.00341                       0.99999
                       0.00009                      -0.00386                       0.99999
                       0.00010                      -0.00433                       0.99999
                       0.00011                      -0.00482                       0.99999
                       0.00012                      -0.00530                       0.99999
                       0.00013                      -0.00579                       0.99998
                       0.00014                      -0.00626                       0.99998
                       0.00015                      -0.00670                       0.99998
                       0.00016                      -0.00712                       0.99997
                       0.00017                      -0.00748                       0.99997
                       0.00017                      -0.00779                       0.99997
                       0.00018                      -0.00804                       0.99997
                       0.00017                      -0.00822                       0.99997
                       0.00016                      -0.00829                       0.99997
                       0.00000                      -0.00000                       1.00000
        </DataArray>
      </PointData>
      <Lines>
        <DataArray type="Int32" Name="connectivity" format="ascii">
      0      1
      1      2
      2      3
      3      4
      4      5
      5      6
      6      7
      7      8
      8      9
      9     10
     10     11
     11     12
     12     13
     13     14
     14     15
     15     16
     16     17
     17     18
     18     19
     19     20
     21      0
        </DataArray>
        <DataArray type="Int32" Name="offsets" format="ascii">
      2
      4
      6
      8
     10
     12
     14
     16
     18
     20
     22
     24
     26
     28
     30
     32
     34
     36
     38
     40
     42
        </DataArray>
      </Lines>
    </Piece>
  </PolyData>
</VTKFile>
