<?xml version="1.0"?>
<VTKFile type="PolyData" version="0.1" byte_order="LittleEndian">
  <PolyData>
    <Piece NumberOfPoints="     22" NumberOfVerts="  0" NumberOfLines="     21"
           NumberOfStrips="  0" NumberOfPolys="      0">
      <Points>
        <DataArray type="Float32" NumberOfComponents="3" format="ascii">
                       0.00000                       0.00000                       2.19000
                       0.00000                       0.00001                       6.57000
                       0.00000                       0.00003                      10.95000
                       0.00001                       0.00005                      15.33000
                       0.00001                       0.00008                      19.71000
                       0.00002                       0.00012                      24.09000
                       0.00003                       0.00016                      28.47000
                       0.00004                       0.00021                      32.85000
                       0.00005                       0.00027                      37.23000
                       0.00006                       0.00033                      41.61000
                       0.00008                       0.00041                      45.99000
                       0.00009                       0.00049                      50.37000
                       0.00011                       0.00058                      54.75000
                       0.00013                       0.00067                      59.13000
                       0.00015                       0.00078                      63.51000
                       0.00017                       0.00089                      67.89000
                       0.00019                       0.00101                      72.27000
                       0.00021                       0.00113                      76.65000
                       0.00023                       0.00126                      81.03000
                       0.00026                       0.00139                      85.41000
                       0.00027                       0.00146                      87.60000
                       0.00000                       0.00000                       0.00000
        </DataArray>
      </Points>
      <PointData>
        <DataArray type="Float32" Name="TranslationalVelocity" NumberOfComponents="3" format="ascii">
                       0.00001                      -0.00071                       0.00000
                       0.00008                      -0.00607                       0.00000
                       0.00025                      -0.01605                       0.00000
                       0.00052                      -0.03017                       0.00000
                       0.00089                      -0.04817                       0.00000
                       0.00136                      -0.06997                       0.00000
                       0.00192                      -0.09561                       0.00000
                       0.00257                      -0.12521                       0.00000
                       0.00331                      -0.15894                       0.00000
                       0.00414                      -0.19696                       0.00000
                       0.00506                      -0.23939                       0.00000
                       0.00607                      -0.28632                       0.00000
                       0.00718                      -0.33777                       0.00000
                       0.00840                      -0.39365                       0.00001
                       0.00971                      -0.45379                       0.00001
                       0.01113                      -0.51792                       0.00001
                       0.01264                      -0.58567                       0.00001
                       0.01422                      -0.65657                       0.00001
                       0.01583                      -0.73009                       0.00001
                       0.01741                      -0.80559                       0.00002
                       0.01817                      -0.84398                       0.00002
                       0.00000                      -0.00000                       0.00000
        </DataArray>
        <DataArray type="Float32" Name="RotationalVelocity" NumberOfComponents="3" format="ascii">
                       0.00064                       0.00001                       0.00000
                       0.00177                       0.00003                       0.00000
                       0.00276                       0.00005                       0.00000
                       0.00367                       0.00007                       0.00000
                       0.00454                       0.00010                       0.00000
                       0.00541                       0.00012                       0.00000
                       0.00630                       0.00014                       0.00000
                       0.00722                       0.00016                       0.00000
                       0.00818                       0.00018                       0.00000
                       0.00918                       0.00020                       0.00000
                       0.01020                       0.00022                       0.00000
                       0.01123                       0.00024                       0.00000
                       0.01226                       0.00027                       0.00000
                       0.01325                       0.00029                       0.00000
                       0.01420                       0.00031                       0.00000
                       0.01507                       0.00033                       0.00000
                       0.01585                       0.00035                       0.00000
                       0.01651                       0.00037                       0.00000
                       0.01704                       0.00037                       0.00000
                       0.01742                       0.00035                       0.00000
                       0.01755                       0.00034                       0.00000
                       0.00000                      -0.00000                       0.00000
        </DataArray>
        <DataArray type="Float32" Name="TranslationalAcceleration" NumberOfComponents="3" format="ascii">
                      -0.00000                       0.00001                      -0.00000
                      -0.00002                       0.00004                      -0.00001
                      -0.00004                       0.00011                      -0.00003
                      -0.00009                       0.00022                      -0.00008
                      -0.00015                       0.00034                      -0.00015
                      -0.00022                       0.00050                      -0.00026
                      -0.00030                       0.00068                      -0.00041
                      -0.00039                       0.00089                      -0.00062
                      -0.00048                       0.00113                      -0.00088
                      -0.00057                       0.00140                      -0.00121
                      -0.00067                       0.00169                      -0.00162
                      -0.00076                       0.00202                      -0.00212
                      -0.00085                       0.00238                      -0.00273
                      -0.00094                       0.00277                      -0.00344
                      -0.00102                       0.00319                      -0.00427
                      -0.00110                       0.00364                      -0.00521
                      -0.00117                       0.00411                      -0.00626
                      -0.00123                       0.00460                      -0.00741
                      -0.00128                       0.00510                      -0.00864
                      -0.00133                       0.00562                      -0.00994
                      -0.00134                       0.00589                      -0.01060
                       0.00000                      -0.00000                       0.00000
        </DataArray>
        <DataArray type="Float32" Name="RotationalAcceleration" NumberOfComponents="3" format="ascii">
                      -0.00000                      -0.00000                       0.00000
                      -0.00001                      -0.00000                       0.00000
                      -0.00002                      -0.00001                       0.00000
                      -0.00003                      -0.00001                       0.00000
                      -0.00003                      -0.00001                       0.00000
                      -0.00004                      -0.00002                       0.00000
                      -0.00004                      -0.00002                       0.00000
                      -0.00005                      -0.00002                       0.00000
                      -0.00006                      -0.00002                       0.00000
                      -0.00006                      -0.00002                       0.00000
                      -0.00007                      -0.00002                       0.00000
                      -0.00008                      -0.00002                       0.00000
                      -0.00009                      -0.00002                       0.00000
                      -0.00009                      -0.00002                       0.00000
                      -0.00010                      -0.00002                       0.00000
                      -0.00010                      -0.00002                       0.00000
                      -0.00011                      -0.00002                       0.00000
                      -0.00011                      -0.00001                       0.00000
                      -0.00012                      -0.00001                       0.00000
                      -0.00012                      -0.00001                       0.00000
                      -0.00012                      -0.00001                       0.00000
                       0.00000                      -0.00000                       0.00000
        </DataArray>
        <DataArray type="Float32" Name="OrientationX" NumberOfComponents="3" format="ascii">
                       1.00000                      -0.00000                      -0.00000
                       1.00000                      -0.00000                      -0.00000
                       1.00000                      -0.00000                      -0.00000
                       1.00000                      -0.00000                      -0.00000
                       1.00000                      -0.00000                      -0.00000
                       1.00000                      -0.00000                      -0.00000
                       1.00000                      -0.00000                      -0.00000
                       1.00000                      -0.00000                      -0.00000
                       1.00000                      -0.00000                      -0.00000
                       1.00000                      -0.00000                      -0.00000
                       1.00000                      -0.00000                      -0.00000
                       1.00000                      -0.00000                      -0.00000
                       1.00000                      -0.00000                      -0.00000
                       1.00000                      -0.00000                      -0.00000
                       1.00000                      -0.00000                      -0.00000
                       1.00000                      -0.00000                      -0.00000
                       1.00000                      -0.00000                      -0.00001
                       1.00000                      -0.00000                      -0.00001
                       1.00000                      -0.00000                      -0.00001
                       1.00000                      -0.00000                      -0.00001
                       1.00000                      -0.00000                      -0.00000
                       1.00000                      -0.00000                       0.00000
        </DataArray>
        <DataArray type="Float32" Name="OrientationY" NumberOfComponents="3" format="ascii">
                      -0.00000                       1.00000                      -0.00000
                      -0.00000                       1.00000                      -0.00000
                      -0.00000                       1.00000                      -0.00000
                      -0.00000                       1.00000                      -0.00001
                      -0.00000                       1.00000                      -0.00001
                      -0.00000                       1.00000                      -0.00001
                      -0.00000                       1.00000                      -0.00001
                      -0.00000                       1.00000                      -0.00001
                      -0.00000                       1.00000                      -0.00001
                      -0.00000                       1.00000                      -0.00002
                      -0.00000                       1.00000                      -0.00002
                      -0.00000                       1.00000                      -0.00002
                      -0.00000                       1.00000                      -0.00002
                      -0.00000                       1.00000                      -0.00002
                      -0.00000                       1.00000                      -0.00002
                      -0.00000                       1.00000                      -0.00003
                      -0.00000                       1.00000                      -0.00003
                      -0.00000                       1.00000                      -0.00003
                      -0.00000                       1.00000                      -0.00003
                      -0.00000                       1.00000                      -0.00003
                      -0.00000                       1.00000                      -0.00003
                      -0.00000                       1.00000                      -0.00000
        </DataArray>
        <DataArray type="Float32" Name="OrientationZ" NumberOfComponents="3" format="ascii">
                       0.00000                       0.00000                       1.00000
                       0.00000                       0.00000                       1.00000
                       0.00000                       0.00000                       1.00000
                       0.00000                       0.00001                       1.00000
                       0.00000                       0.00001                       1.00000
                       0.00000                       0.00001                       1.00000
                       0.00000                       0.00001                       1.00000
                       0.00000                       0.00001                       1.00000
                       0.00000                       0.00001                       1.00000
                       0.00000                       0.00002                       1.00000
                       0.00000                       0.00002                       1.00000
                       0.00000                       0.00002                       1.00000
                       0.00000                       0.00002                       1.00000
                       0.00000                       0.00002                       1.00000
                       0.00000                       0.00002                       1.00000
                       0.00000                       0.00003                       1.00000
                       0.00001                       0.00003                       1.00000
                       0.00001                       0.00003                       1.00000
                       0.00001                       0.00003                       1.00000
                       0.00001                       0.00003                       1.00000
                       0.00000                       0.00003                       1.00000
                       0.00000                      -0.00000                       1.00000
        </DataArray>
      </PointData>
      <Lines>
        <DataArray type="Int32" Name="connectivity" format="ascii">
      0      1
      1      2
      2      3
      3      4
      4      5
      5      6
      6      7
      7      8
      8      9
      9     10
     10     11
     11     12
     12     13
     13     14
     14     15
     15     16
     16     17
     17     18
     18     19
     19     20
     21      0
        </DataArray>
        <DataArray type="Int32" Name="offsets" format="ascii">
      2
      4
      6
      8
     10
     12
     14
     16
     18
     20
     22
     24
     26
     28
     30
     32
     34
     36
     38
     40
     42
        </DataArray>
      </Lines>
    </Piece>
  </PolyData>
</VTKFile>
