<?xml version="1.0"?>
<VTKFile type="PolyData" version="0.1" byte_order="LittleEndian">
  <PolyData>
    <Piece NumberOfPoints="     22" NumberOfVerts="  0" NumberOfLines="     21"
           NumberOfStrips="  0" NumberOfPolys="      0">
      <Points>
        <DataArray type="Float32" NumberOfComponents="3" format="ascii">
                       0.00000                      -0.00014                       2.19000
                       0.00002                      -0.00122                       6.57000
                       0.00005                      -0.00322                      10.95000
                       0.00011                      -0.00605                      15.33000
                       0.00019                      -0.00966                      19.71000
                       0.00029                      -0.01404                      24.08999
                       0.00041                      -0.01918                      28.46999
                       0.00056                      -0.02512                      32.84999
                       0.00072                      -0.03188                      37.22998
                       0.00089                      -0.03951                      41.60998
                       0.00109                      -0.04802                      45.98997
                       0.00131                      -0.05743                      50.36996
                       0.00155                      -0.06775                      54.74995
                       0.00181                      -0.07896                      59.12993
                       0.00210                      -0.09102                      63.50991
                       0.00240                      -0.10389                      67.88990
                       0.00273                      -0.11747                      72.26987
                       0.00307                      -0.13170                      76.64985
                       0.00341                      -0.14644                      81.02983
                       0.00375                      -0.16158                      85.40980
                       0.00392                      -0.16928                      87.59979
                       0.00000                       0.00000                       0.00000
        </DataArray>
      </Points>
      <PointData>
        <DataArray type="Float32" Name="TranslationalVelocity" NumberOfComponents="3" format="ascii">
                       0.00001                      -0.00065                      -0.00000
                       0.00008                      -0.00555                      -0.00000
                       0.00023                      -0.01466                      -0.00001
                       0.00047                      -0.02756                      -0.00001
                       0.00080                      -0.04400                      -0.00003
                       0.00122                      -0.06392                      -0.00005
                       0.00173                      -0.08734                      -0.00008
                       0.00231                      -0.11439                      -0.00011
                       0.00298                      -0.14520                      -0.00016
                       0.00373                      -0.17992                      -0.00022
                       0.00455                      -0.21869                      -0.00030
                       0.00546                      -0.26156                      -0.00039
                       0.00646                      -0.30856                      -0.00050
                       0.00756                      -0.35961                      -0.00063
                       0.00874                      -0.41455                      -0.00078
                       0.01002                      -0.47314                      -0.00095
                       0.01138                      -0.53503                      -0.00115
                       0.01280                      -0.59981                      -0.00136
                       0.01425                      -0.66696                      -0.00158
                       0.01567                      -0.73595                      -0.00182
                       0.01635                      -0.77101                      -0.00194
                       0.00000                      -0.00000                       0.00000
        </DataArray>
        <DataArray type="Float32" Name="RotationalVelocity" NumberOfComponents="3" format="ascii">
                       0.00059                       0.00001                       0.00000
                       0.00162                       0.00002                       0.00000
                       0.00253                       0.00004                       0.00000
                       0.00335                       0.00007                       0.00000
                       0.00415                       0.00009                       0.00000
                       0.00494                       0.00011                       0.00000
                       0.00576                       0.00012                       0.00000
                       0.00660                       0.00014                       0.00000
                       0.00748                       0.00016                       0.00000
                       0.00839                       0.00018                       0.00000
                       0.00932                       0.00020                       0.00000
                       0.01026                       0.00022                       0.00000
                       0.01120                       0.00024                       0.00000
                       0.01211                       0.00026                       0.00000
                       0.01297                       0.00028                       0.00000
                       0.01377                       0.00030                       0.00000
                       0.01448                       0.00032                       0.00000
                       0.01508                       0.00033                       0.00000
                       0.01556                       0.00033                       0.00000
                       0.01591                       0.00032                       0.00000
                       0.01604                       0.00030                       0.00000
                       0.00000                      -0.00000                       0.00000
        </DataArray>
        <DataArray type="Float32" Name="TranslationalAcceleration" NumberOfComponents="3" format="ascii">
                      -0.00001                       0.00059                      -0.00000
                      -0.00008                       0.00501                      -0.00001
                      -0.00023                       0.01324                      -0.00002
                      -0.00048                       0.02488                      -0.00005
                      -0.00081                       0.03973                      -0.00010
                      -0.00123                       0.05770                      -0.00018
                      -0.00174                       0.07885                      -0.00028
                      -0.00233                       0.10327                      -0.00041
                      -0.00300                       0.13108                      -0.00059
                      -0.00374                       0.16243                      -0.00081
                      -0.00457                       0.19743                      -0.00108
                      -0.00547                       0.23614                      -0.00142
                      -0.00646                       0.27857                      -0.00183
                      -0.00753                       0.32465                      -0.00230
                      -0.00870                       0.37425                      -0.00286
                      -0.00995                       0.42715                      -0.00349
                      -0.01128                       0.48302                      -0.00419
                      -0.01266                       0.54150                      -0.00496
                      -0.01407                       0.60213                      -0.00578
                      -0.01546                       0.66441                      -0.00665
                      -0.01612                       0.69607                      -0.00710
                       0.00000                      -0.00000                       0.00000
        </DataArray>
        <DataArray type="Float32" Name="RotationalAcceleration" NumberOfComponents="3" format="ascii">
                      -0.00053                      -0.00001                       0.00000
                      -0.00146                      -0.00003                       0.00000
                      -0.00228                      -0.00005                       0.00000
                      -0.00303                      -0.00007                       0.00000
                      -0.00375                      -0.00009                       0.00000
                      -0.00446                      -0.00011                       0.00000
                      -0.00520                      -0.00013                       0.00000
                      -0.00596                      -0.00014                       0.00000
                      -0.00675                      -0.00016                       0.00000
                      -0.00757                      -0.00018                       0.00000
                      -0.00841                      -0.00020                       0.00000
                      -0.00926                      -0.00022                       0.00000
                      -0.01011                      -0.00024                       0.00000
                      -0.01093                      -0.00026                       0.00000
                      -0.01171                      -0.00028                       0.00000
                      -0.01243                      -0.00029                       0.00000
                      -0.01307                      -0.00031                       0.00000
                      -0.01361                      -0.00032                       0.00000
                      -0.01405                      -0.00032                       0.00000
                      -0.01437                      -0.00031                       0.00000
                      -0.01448                      -0.00030                       0.00000
                       0.00000                      -0.00000                       0.00000
        </DataArray>
        <DataArray type="Float32" Name="OrientationX" NumberOfComponents="3" format="ascii">
                       1.00000                       0.00000                      -0.00000
                       1.00000                       0.00000                      -0.00001
                       1.00000                       0.00000                      -0.00001
                       1.00000                       0.00000                      -0.00002
                       1.00000                       0.00000                      -0.00002
                       1.00000                       0.00000                      -0.00003
                       1.00000                       0.00000                      -0.00003
                       1.00000                       0.00000                      -0.00003
                       1.00000                       0.00000                      -0.00004
                       1.00000                       0.00000                      -0.00004
                       1.00000                       0.00000                      -0.00005
                       1.00000                       0.00000                      -0.00005
                       1.00000                       0.00000                      -0.00006
                       1.00000                       0.00000                      -0.00006
                       1.00000                       0.00000                      -0.00007
                       1.00000                       0.00000                      -0.00007
                       1.00000                       0.00000                      -0.00008
                       1.00000                       0.00000                      -0.00008
                       1.00000                       0.00000                      -0.00008
                       1.00000                       0.00000                      -0.00008
                       1.00000                       0.00000                      -0.00007
                       1.00000                      -0.00000                       0.00000
        </DataArray>
        <DataArray type="Float32" Name="OrientationY" NumberOfComponents="3" format="ascii">
                       0.00000                       1.00000                       0.00013
                       0.00000                       1.00000                       0.00036
                       0.00000                       1.00000                       0.00055
                       0.00000                       1.00000                       0.00074
                       0.00000                       1.00000                       0.00091
                       0.00000                       1.00000                       0.00109
                       0.00000                       1.00000                       0.00126
                       0.00000                       1.00000                       0.00145
                       0.00000                       1.00000                       0.00164
                       0.00000                       1.00000                       0.00184
                       0.00000                       1.00000                       0.00205
                       0.00000                       1.00000                       0.00225
                       0.00000                       1.00000                       0.00246
                       0.00000                       1.00000                       0.00266
                       0.00000                       1.00000                       0.00285
                       0.00000                       1.00000                       0.00302
                       0.00000                       0.99999                       0.00318
                       0.00000                       0.99999                       0.00331
                       0.00000                       0.99999                       0.00342
                       0.00000                       0.99999                       0.00349
                       0.00000                       0.99999                       0.00352
                      -0.00000                       1.00000                      -0.00000
        </DataArray>
        <DataArray type="Float32" Name="OrientationZ" NumberOfComponents="3" format="ascii">
                       0.00000                      -0.00013                       1.00000
                       0.00001                      -0.00036                       1.00000
                       0.00001                      -0.00055                       1.00000
                       0.00002                      -0.00074                       1.00000
                       0.00002                      -0.00091                       1.00000
                       0.00003                      -0.00109                       1.00000
                       0.00003                      -0.00126                       1.00000
                       0.00003                      -0.00145                       1.00000
                       0.00004                      -0.00164                       1.00000
                       0.00004                      -0.00184                       1.00000
                       0.00005                      -0.00205                       1.00000
                       0.00005                      -0.00225                       1.00000
                       0.00006                      -0.00246                       1.00000
                       0.00006                      -0.00266                       1.00000
                       0.00007                      -0.00285                       1.00000
                       0.00007                      -0.00302                       1.00000
                       0.00008                      -0.00318                       0.99999
                       0.00008                      -0.00331                       0.99999
                       0.00008                      -0.00342                       0.99999
                       0.00008                      -0.00349                       0.99999
                       0.00007                      -0.00352                       0.99999
                       0.00000                      -0.00000                       1.00000
        </DataArray>
      </PointData>
      <Lines>
        <DataArray type="Int32" Name="connectivity" format="ascii">
      0      1
      1      2
      2      3
      3      4
      4      5
      5      6
      6      7
      7      8
      8      9
      9     10
     10     11
     11     12
     12     13
     13     14
     14     15
     15     16
     16     17
     17     18
     18     19
     19     20
     21      0
        </DataArray>
        <DataArray type="Int32" Name="offsets" format="ascii">
      2
      4
      6
      8
     10
     12
     14
     16
     18
     20
     22
     24
     26
     28
     30
     32
     34
     36
     38
     40
     42
        </DataArray>
      </Lines>
    </Piece>
  </PolyData>
</VTKFile>
